
Host: Nicks-MBP.hsd1.ca.comcast.net

Timers On : Wed Feb 17 12:27:51 2021
Timers Off: Wed Feb 17 12:29:38 2021

Wall Time:      106.99 seconds

                                                       Time (seconds)
Module                                       User      System        Wall        Calls

--------------------------------------------------------------------------------------

**************************************************************************************
