
Host: Nicks-MBP.hsd1.ca.comcast.net

Timers On : Wed Feb 17 12:05:38 2021
Timers Off: Wed Feb 17 12:05:39 2021

Wall Time:        1.10 seconds

                                                       Time (seconds)
Module                                       User      System        Wall        Calls

--------------------------------------------------------------------------------------

**************************************************************************************

Host: Nicks-MBP.hsd1.ca.comcast.net

Timers On : Wed Feb 17 12:05:53 2021
Timers Off: Wed Feb 17 12:05:54 2021

Wall Time:        0.65 seconds

                                                       Time (seconds)
Module                                       User      System        Wall        Calls

--------------------------------------------------------------------------------------

**************************************************************************************

Host: Nicks-MBP.hsd1.ca.comcast.net

Timers On : Wed Feb 17 12:06:50 2021
Timers Off: Wed Feb 17 12:06:51 2021

Wall Time:        0.86 seconds

                                                       Time (seconds)
Module                                       User      System        Wall        Calls

--------------------------------------------------------------------------------------

**************************************************************************************

Host: Nicks-MBP.hsd1.ca.comcast.net

Timers On : Wed Feb 17 12:07:11 2021
Timers Off: Wed Feb 17 12:07:12 2021

Wall Time:        0.69 seconds

                                                       Time (seconds)
Module                                       User      System        Wall        Calls

--------------------------------------------------------------------------------------

**************************************************************************************

Host: Nicks-MBP.hsd1.ca.comcast.net

Timers On : Wed Feb 17 12:07:31 2021
Timers Off: Wed Feb 17 12:07:33 2021

Wall Time:        1.99 seconds

                                                       Time (seconds)
Module                                       User      System        Wall        Calls

--------------------------------------------------------------------------------------

**************************************************************************************

Host: Nicks-MBP.hsd1.ca.comcast.net

Timers On : Wed Feb 17 12:07:48 2021
Timers Off: Wed Feb 17 12:07:49 2021

Wall Time:        0.85 seconds

                                                       Time (seconds)
Module                                       User      System        Wall        Calls

--------------------------------------------------------------------------------------

**************************************************************************************

Host: Nicks-MBP.hsd1.ca.comcast.net

Timers On : Wed Feb 17 12:09:56 2021
Timers Off: Wed Feb 17 12:09:57 2021

Wall Time:        0.60 seconds

                                                       Time (seconds)
Module                                       User      System        Wall        Calls

--------------------------------------------------------------------------------------

**************************************************************************************

Host: Nicks-MBP.hsd1.ca.comcast.net

Timers On : Wed Feb 17 12:10:02 2021
Timers Off: Wed Feb 17 12:10:03 2021

Wall Time:        0.62 seconds

                                                       Time (seconds)
Module                                       User      System        Wall        Calls

--------------------------------------------------------------------------------------

**************************************************************************************

Host: Nicks-MBP.hsd1.ca.comcast.net

Timers On : Wed Feb 17 12:10:26 2021
Timers Off: Wed Feb 17 12:10:26 2021

Wall Time:        0.58 seconds

                                                       Time (seconds)
Module                                       User      System        Wall        Calls

--------------------------------------------------------------------------------------

**************************************************************************************

Host: Nicks-MBP.hsd1.ca.comcast.net

Timers On : Wed Feb 17 12:10:37 2021
Timers Off: Wed Feb 17 12:10:38 2021

Wall Time:        0.55 seconds

                                                       Time (seconds)
Module                                       User      System        Wall        Calls

--------------------------------------------------------------------------------------

**************************************************************************************

Host: Nicks-MBP.hsd1.ca.comcast.net

Timers On : Wed Feb 17 12:10:54 2021
Timers Off: Wed Feb 17 12:10:56 2021

Wall Time:        1.47 seconds

                                                       Time (seconds)
Module                                       User      System        Wall        Calls

--------------------------------------------------------------------------------------

**************************************************************************************

Host: Nicks-MBP.hsd1.ca.comcast.net

Timers On : Wed Feb 17 12:11:07 2021
Timers Off: Wed Feb 17 12:11:08 2021

Wall Time:        1.78 seconds

                                                       Time (seconds)
Module                                       User      System        Wall        Calls

--------------------------------------------------------------------------------------

**************************************************************************************

Host: Nicks-MBP.hsd1.ca.comcast.net

Timers On : Wed Feb 17 12:11:30 2021
Timers Off: Wed Feb 17 12:11:42 2021

Wall Time:       12.04 seconds

                                                       Time (seconds)
Module                                       User      System        Wall        Calls

--------------------------------------------------------------------------------------

**************************************************************************************

Host: Nicks-MBP.hsd1.ca.comcast.net

Timers On : Wed Feb 17 12:12:12 2021
Timers Off: Wed Feb 17 12:12:14 2021

Wall Time:        1.86 seconds

                                                       Time (seconds)
Module                                       User      System        Wall        Calls

--------------------------------------------------------------------------------------

**************************************************************************************

Host: Nicks-MBP.hsd1.ca.comcast.net

Timers On : Wed Feb 17 12:12:32 2021
Timers Off: Wed Feb 17 12:12:33 2021

Wall Time:        1.78 seconds

                                                       Time (seconds)
Module                                       User      System        Wall        Calls

--------------------------------------------------------------------------------------

**************************************************************************************

Host: Nicks-MBP.hsd1.ca.comcast.net

Timers On : Wed Feb 17 12:12:49 2021
Timers Off: Wed Feb 17 12:12:51 2021

Wall Time:        1.79 seconds

                                                       Time (seconds)
Module                                       User      System        Wall        Calls

--------------------------------------------------------------------------------------

**************************************************************************************

Host: Nicks-MBP.hsd1.ca.comcast.net

Timers On : Wed Feb 17 12:13:02 2021
Timers Off: Wed Feb 17 12:13:04 2021

Wall Time:        1.80 seconds

                                                       Time (seconds)
Module                                       User      System        Wall        Calls

--------------------------------------------------------------------------------------

**************************************************************************************

Host: Nicks-MBP.hsd1.ca.comcast.net

Timers On : Wed Feb 17 12:13:16 2021
Timers Off: Wed Feb 17 12:13:18 2021

Wall Time:        1.81 seconds

                                                       Time (seconds)
Module                                       User      System        Wall        Calls

--------------------------------------------------------------------------------------

**************************************************************************************

Host: Nicks-MBP.hsd1.ca.comcast.net

Timers On : Wed Feb 17 12:13:37 2021
Timers Off: Wed Feb 17 12:13:40 2021

Wall Time:        2.62 seconds

                                                       Time (seconds)
Module                                       User      System        Wall        Calls

--------------------------------------------------------------------------------------

**************************************************************************************

Host: Nicks-MBP.hsd1.ca.comcast.net

Timers On : Wed Feb 17 12:13:48 2021
Timers Off: Wed Feb 17 12:13:52 2021

Wall Time:        4.04 seconds

                                                       Time (seconds)
Module                                       User      System        Wall        Calls

--------------------------------------------------------------------------------------

**************************************************************************************

Host: Nicks-MBP.hsd1.ca.comcast.net

Timers On : Wed Feb 17 12:14:03 2021
Timers Off: Wed Feb 17 12:14:18 2021

Wall Time:       15.08 seconds

                                                       Time (seconds)
Module                                       User      System        Wall        Calls

--------------------------------------------------------------------------------------

**************************************************************************************

Host: Nicks-MBP.hsd1.ca.comcast.net

Timers On : Wed Feb 17 12:14:28 2021
Timers Off: Wed Feb 17 12:14:32 2021

Wall Time:        3.93 seconds

                                                       Time (seconds)
Module                                       User      System        Wall        Calls

--------------------------------------------------------------------------------------

**************************************************************************************

Host: Nicks-MBP.hsd1.ca.comcast.net

Timers On : Wed Feb 17 12:17:56 2021
Timers Off: Wed Feb 17 12:18:00 2021

Wall Time:        4.06 seconds

                                                       Time (seconds)
Module                                       User      System        Wall        Calls

--------------------------------------------------------------------------------------

**************************************************************************************

Host: Nicks-MBP.hsd1.ca.comcast.net

Timers On : Wed Feb 17 12:18:08 2021
Timers Off: Wed Feb 17 12:18:12 2021

Wall Time:        4.07 seconds

                                                       Time (seconds)
Module                                       User      System        Wall        Calls

--------------------------------------------------------------------------------------

**************************************************************************************
