
Host: Nicks-MacBook-Pro.local

Timers On : Wed Mar 31 10:05:47 2021
Timers Off: Wed Mar 31 10:05:49 2021

Wall Time:        1.27 seconds

                                                       Time (seconds)
Module                                       User      System        Wall        Calls

--------------------------------------------------------------------------------------

**************************************************************************************

Host: Nicks-MacBook-Pro.local

Timers On : Wed Mar 31 10:07:58 2021
Timers Off: Wed Mar 31 10:07:59 2021

Wall Time:        0.79 seconds

                                                       Time (seconds)
Module                                       User      System        Wall        Calls

--------------------------------------------------------------------------------------

**************************************************************************************

Host: Nicks-MBP.hsd1.ca.comcast.net

Timers On : Wed Mar 31 10:13:36 2021
Timers Off: Wed Mar 31 10:13:37 2021

Wall Time:        1.42 seconds

                                                       Time (seconds)
Module                                       User      System        Wall        Calls

--------------------------------------------------------------------------------------

**************************************************************************************

Host: Nicks-MBP.hsd1.ca.comcast.net

Timers On : Wed Mar 31 10:13:55 2021
Timers Off: Wed Mar 31 10:13:56 2021

Wall Time:        1.49 seconds

                                                       Time (seconds)
Module                                       User      System        Wall        Calls

--------------------------------------------------------------------------------------

**************************************************************************************

Host: Nicks-MBP.hsd1.ca.comcast.net

Timers On : Wed Mar 31 10:16:18 2021
Timers Off: Wed Mar 31 10:16:20 2021

Wall Time:        2.13 seconds

                                                       Time (seconds)
Module                                       User      System        Wall        Calls

--------------------------------------------------------------------------------------

**************************************************************************************

Host: Nicks-MBP.hsd1.ca.comcast.net

Timers On : Wed Mar 31 10:28:56 2021
Timers Off: Wed Mar 31 10:28:58 2021

Wall Time:        1.79 seconds

                                                       Time (seconds)
Module                                       User      System        Wall        Calls

--------------------------------------------------------------------------------------

**************************************************************************************

Host: Nicks-MBP.hsd1.ca.comcast.net

Timers On : Wed Mar 31 10:41:27 2021
Timers Off: Wed Mar 31 10:41:29 2021

Wall Time:        1.88 seconds

                                                       Time (seconds)
Module                                       User      System        Wall        Calls

--------------------------------------------------------------------------------------

**************************************************************************************

Host: Nicks-MBP.hsd1.ca.comcast.net

Timers On : Wed Mar 31 10:46:04 2021
Timers Off: Wed Mar 31 10:46:06 2021

Wall Time:        1.88 seconds

                                                       Time (seconds)
Module                                       User      System        Wall        Calls

--------------------------------------------------------------------------------------

**************************************************************************************

Host: Nicks-MBP.hsd1.ca.comcast.net

Timers On : Wed Mar 31 10:47:32 2021
Timers Off: Wed Mar 31 10:47:34 2021

Wall Time:        1.99 seconds

                                                       Time (seconds)
Module                                       User      System        Wall        Calls

--------------------------------------------------------------------------------------

**************************************************************************************
