
Host: Nicks-MacBook-Pro.local

Timers On : Mon Apr 12 16:08:51 2021
Timers Off: Mon Apr 12 16:08:54 2021

Wall Time:        2.23 seconds

                                                       Time (seconds)
Module                                       User      System        Wall        Calls

--------------------------------------------------------------------------------------

**************************************************************************************

Host: Nicks-MacBook-Pro.local

Timers On : Mon Apr 12 16:16:32 2021
Timers Off: Mon Apr 12 16:16:33 2021

Wall Time:        1.14 seconds

                                                       Time (seconds)
Module                                       User      System        Wall        Calls

--------------------------------------------------------------------------------------

**************************************************************************************

Host: Nicks-MacBook-Pro.local

Timers On : Wed Apr 14 16:07:07 2021
Timers Off: Wed Apr 14 16:07:09 2021

Wall Time:        2.06 seconds

                                                       Time (seconds)
Module                                       User      System        Wall        Calls

--------------------------------------------------------------------------------------

**************************************************************************************

Host: Nicks-MacBook-Pro.local

Timers On : Wed Apr 14 16:33:48 2021
Timers Off: Wed Apr 14 16:33:50 2021

Wall Time:        1.54 seconds

                                                       Time (seconds)
Module                                       User      System        Wall        Calls

--------------------------------------------------------------------------------------

**************************************************************************************

Host: Nicks-MacBook-Pro.local

Timers On : Wed Apr 14 16:39:24 2021
Timers Off: Wed Apr 14 16:39:26 2021

Wall Time:        1.03 seconds

                                                       Time (seconds)
Module                                       User      System        Wall        Calls

--------------------------------------------------------------------------------------

**************************************************************************************

Host: Nicks-MacBook-Pro.local

Timers On : Wed Apr 14 16:42:25 2021
Timers Off: Wed Apr 14 16:42:26 2021

Wall Time:        0.84 seconds

                                                       Time (seconds)
Module                                       User      System        Wall        Calls

--------------------------------------------------------------------------------------

**************************************************************************************

Host: Nicks-MacBook-Pro.local

Timers On : Wed Apr 14 16:49:20 2021
Timers Off: Wed Apr 14 16:49:21 2021

Wall Time:        0.92 seconds

                                                       Time (seconds)
Module                                       User      System        Wall        Calls

--------------------------------------------------------------------------------------

**************************************************************************************

Host: Nicks-MacBook-Pro.local

Timers On : Wed Apr 14 16:49:53 2021
Timers Off: Wed Apr 14 16:49:54 2021

Wall Time:        0.94 seconds

                                                       Time (seconds)
Module                                       User      System        Wall        Calls

--------------------------------------------------------------------------------------

**************************************************************************************

Host: Nicks-MacBook-Pro.local

Timers On : Wed Apr 14 18:18:04 2021
Timers Off: Wed Apr 14 18:18:05 2021

Wall Time:        1.25 seconds

                                                       Time (seconds)
Module                                       User      System        Wall        Calls

--------------------------------------------------------------------------------------

**************************************************************************************

Host: Nicks-MacBook-Pro.local

Timers On : Wed Apr 14 18:18:55 2021
Timers Off: Wed Apr 14 18:18:57 2021

Wall Time:        1.33 seconds

                                                       Time (seconds)
Module                                       User      System        Wall        Calls

--------------------------------------------------------------------------------------

**************************************************************************************

Host: Nicks-MacBook-Pro.local

Timers On : Wed Apr 14 18:26:12 2021
Timers Off: Wed Apr 14 18:26:13 2021

Wall Time:        1.33 seconds

                                                       Time (seconds)
Module                                       User      System        Wall        Calls

--------------------------------------------------------------------------------------

**************************************************************************************

Host: Nicks-MacBook-Pro.local

Timers On : Wed Apr 14 18:27:59 2021
Timers Off: Wed Apr 14 18:28:00 2021

Wall Time:        1.22 seconds

                                                       Time (seconds)
Module                                       User      System        Wall        Calls

--------------------------------------------------------------------------------------

**************************************************************************************

Host: Nicks-MacBook-Pro.local

Timers On : Wed Apr 14 18:28:37 2021
Timers Off: Wed Apr 14 18:28:38 2021

Wall Time:        1.34 seconds

                                                       Time (seconds)
Module                                       User      System        Wall        Calls

--------------------------------------------------------------------------------------

**************************************************************************************

Host: Nicks-MacBook-Pro.local

Timers On : Wed Apr 14 18:30:16 2021
Timers Off: Wed Apr 14 18:30:17 2021

Wall Time:        1.27 seconds

                                                       Time (seconds)
Module                                       User      System        Wall        Calls

--------------------------------------------------------------------------------------

**************************************************************************************

Host: Nicks-MacBook-Pro.local

Timers On : Wed Apr 14 18:32:20 2021
Timers Off: Wed Apr 14 18:32:22 2021

Wall Time:        1.27 seconds

                                                       Time (seconds)
Module                                       User      System        Wall        Calls

--------------------------------------------------------------------------------------

**************************************************************************************
